LAMMPS (11 Jan 2013)
Lattice spacing in x,y,z = 1.6796 1.6796 1.6796
Created orthogonal box = (0 0 0) to (33.5919 33.5919 33.5919)
  3 by 4 by 4 MPI processor grid
Created 32000 atoms
Setting up run ...
Memory usage per processor = 1.84869 Mbytes
Step Temp E_pair E_mol TotEng Press 
       0         1.44   -6.7733681            0   -4.6134356   -5.0197073 
     100    0.7574531   -5.7585055            0   -4.6223613   0.20726105 
Loop time of 0.111412 on 48 procs for 100 steps with 32000 atoms

Pair  time (%) = 0.0476446 (42.7642)
Neigh time (%) = 0.00683663 (6.13632)
Comm  time (%) = 0.0554659 (49.7843)
Outpt time (%) = 0.000160709 (0.144247)
Other time (%) = 0.00130461 (1.17097)

Nlocal:    666.667 ave 695 max 636 min
Histogram: 1 3 4 6 9 8 7 3 4 3
Nghost:    2199.15 ave 2234 max 2168 min
Histogram: 2 4 7 5 12 5 2 4 4 3
Neighs:    25059 ave 26611 max 23829 min
Histogram: 4 4 5 11 3 12 2 2 2 3

Total # of neighbors = 1202833
Ave neighs/atom = 37.5885
Neighbor list builds = 5
Dangerous builds = 0
