LAMMPS (10 Feb 2015)
  using 1 OpenMP thread(s) per MPI task
Lattice spacing in x,y,z = 1.6796 1.6796 1.6796
Created orthogonal box = (0 0 0) to (33.5919 33.5919 33.5919)
  3 by 4 by 4 MPI processor grid
Created 32000 atoms
Neighbor list info ...
  1 neighbor list requests
  update every 20 steps, delay 0 steps, check no
  master list distance cutoff = 2.8
Setting up run ...
[qnode5038:30973] *** Process received signal ***
[qnode5038:30973] Signal: Segmentation fault (11)
[qnode5038:30973] Signal code:  (128)
[qnode5038:30973] Failing at address: (nil)
