LAMMPS (22 Aug 2018)
  using 1 OpenMP thread(s) per MPI task
Lattice spacing in x,y,z = 1.6796 1.6796 1.6796
Created orthogonal box = (0 0 0) to (33.5919 33.5919 33.5919)
  3 by 4 by 4 MPI processor grid
Created 32000 atoms
  Time spent = 0.065381 secs
Neighbor list info ...
  update every 20 steps, delay 0 steps, check no
  max neighbors/atom: 2000, page size: 100000
  master list distance cutoff = 2.8
  ghost atom cutoff = 2.8
  binsize = 1.4, bins = 24 24 24
  1 neighbor lists, perpetual/occasional/extra = 1 0 0
  (1) pair lj/cut, perpetual
      attributes: half, newton on
      pair build: half/bin/atomonly/newton
      stencil: half/bin/3d/newton
      bin: standard
Setting up Verlet run ...
  Unit style    : lj
  Current step  : 0
  Time step     : 0.005
Per MPI rank memory allocation (min/avg/max) = 2.641 | 2.657 | 2.671 Mbytes
Step Temp E_pair E_mol TotEng Press 
       0         1.44   -6.7733681            0   -4.6134356   -5.0197073 
     100    0.7574531   -5.7585055            0   -4.6223613   0.20726105 
Loop time of 0.108401 on 48 procs for 100 steps with 32000 atoms

Performance: 398520.768 tau/day, 922.502 timesteps/s
71.5% CPU use with 48 MPI tasks x 1 OpenMP threads

MPI task timing breakdown:
Section |  min time  |  avg time  |  max time  |%varavg| %total
---------------------------------------------------------------
Pair    | 0.050379   | 0.066401   | 0.10102    |   5.2 | 61.26
Neigh   | 0.006754   | 0.0087763  | 0.013452   |   1.8 |  8.10
Comm    | 0.022048   | 0.030525   | 0.043524   |   3.0 | 28.16
Output  | 0.000123   | 0.00029083 | 0.001498   |   0.0 |  0.27
Modify  | 0.000867   | 0.0011304  | 0.001725   |   0.7 |  1.04
Other   |            | 0.001277   |            |       |  1.18

Nlocal:    666.667 ave 695 max 636 min
Histogram: 1 3 4 6 9 8 7 3 4 3
Nghost:    2199.15 ave 2234 max 2168 min
Histogram: 2 4 7 5 12 5 2 4 4 3
Neighs:    25059 ave 26611 max 23829 min
Histogram: 4 4 5 11 3 12 2 2 2 3

Total # of neighbors = 1202833
Ave neighs/atom = 37.5885
Neighbor list builds = 5
Dangerous builds not checked
Total wall time: 0:00:00
